unknown system                          
   4.0732999999999997     
     1.000000    0.000000    0.000000
     0.000000    1.000000    0.000000
     0.000000    0.000000    1.000000
   Mg   O 
     4     4
Direct
  0.000000  0.000000  0.000000
  0.500000  0.500000  0.000000
  0.500000  0.000000  0.500000
  0.000000  0.500000  0.500000
  0.500000  0.500000  0.500000
  0.000000  0.000000  0.500000
  0.000000  0.500000  0.000000
  0.500000  0.000000  0.000000

   30   30   30
 0.22409202581E+01 0.23248074172E+01 0.26604125981E+01 0.34089718132E+01 0.48200440001E+01
 0.74109420650E+01 0.11924503217E+02 0.19230768125E+02 0.31220781580E+02 0.53074256156E+02
 0.94356859828E+02 0.17190917073E+03 0.29504949443E+03 0.42714336564E+03 0.51562096165E+03
 0.54366237902E+03 0.51562096165E+03 0.42714336564E+03 0.29504949443E+03 0.17190917073E+03
 0.94356859828E+02 0.53074256156E+02 0.31220781580E+02 0.19230768125E+02 0.11924503217E+02
 0.74109420650E+01 0.48200440001E+01 0.34089718132E+01 0.26604125981E+01 0.23248074172E+01
 0.23248074172E+01 0.23866208071E+01 0.26706838451E+01 0.33646885914E+01 0.47225589981E+01
 0.72346608825E+01 0.11604095817E+02 0.18638892877E+02 0.30042061883E+02 0.50511826561E+02
 0.88804300845E+02 0.15941482960E+03 0.27270120002E+03 0.39813613480E+03 0.48630044951E+03
 0.51562096165E+03 0.48630044951E+03 0.39813613480E+03 0.27270120002E+03 0.15941482960E+03
 0.88804300845E+02 0.50511826561E+02 0.30042061883E+02 0.18638892877E+02 0.11604095817E+02
 0.72346608825E+01 0.47225589981E+01 0.33646885914E+01 0.26706838451E+01 0.23866208071E+01
 0.26604125981E+01 0.26706838451E+01 0.28284683348E+01 0.33754829043E+01 0.45732161406E+01
 0.68420627850E+01 0.10780449531E+02 0.17047663597E+02 0.26897025225E+02 0.43825339054E+02
 0.74618572061E+02 0.12837082630E+03 0.21516158937E+03 0.31817739942E+03 0.39813613480E+03
 0.42714336564E+03 0.39813613480E+03 0.31817739942E+03 0.21516158937E+03 0.12837082630E+03
 0.74618572061E+02 0.43825339054E+02 0.26897025225E+02 0.17047663597E+02 0.10780449531E+02
 0.68420627850E+01 0.45732161406E+01 0.33754829043E+01 0.28284683348E+01 0.26706838451E+01
 0.34089718132E+01 0.33646885914E+01 0.33754829043E+01 0.37219098735E+01 0.46648885902E+01
 0.65313126379E+01 0.97797844920E+01 0.14910109420E+02 0.22710937847E+02 0.35311043500E+02
 0.57037966094E+02 0.92820874746E+02 0.14723479457E+03 0.21516158937E+03 0.27270120002E+03
 0.29504949443E+03 0.27270120002E+03 0.21516158937E+03 0.14723479457E+03 0.92820874746E+02
 0.57037966094E+02 0.35311043500E+02 0.22710937847E+02 0.14910109420E+02 0.97797844920E+01
 0.65313126379E+01 0.46648885902E+01 0.37219098735E+01 0.33754829043E+01 0.33646885914E+01
 0.48200440001E+01 0.47225589981E+01 0.45732161406E+01 0.46648885902E+01 0.52514435235E+01
 0.65684656489E+01 0.89340929885E+01 0.12726777233E+02 0.18434437124E+02 0.27129166971E+02
 0.40998870812E+02 0.62728220239E+02 0.92820874746E+02 0.12837082630E+03 0.15941482960E+03
 0.17190917073E+03 0.15941482960E+03 0.12837082630E+03 0.92820874746E+02 0.62728220239E+02
 0.40998870812E+02 0.27129166971E+02 0.18434437124E+02 0.12726777233E+02 0.89340929885E+01
 0.65684656489E+01 0.52514435235E+01 0.46648885902E+01 0.45732161406E+01 0.47225589981E+01
 0.74109420650E+01 0.72346608825E+01 0.68420627850E+01 0.65313126379E+01 0.65684656489E+01
 0.71457702905E+01 0.84854536652E+01 0.10888726201E+02 0.14705980370E+02 0.20411265177E+02
 0.28832973434E+02 0.40998870812E+02 0.57037966094E+02 0.74618572061E+02 0.88804300845E+02
 0.94356859828E+02 0.88804300845E+02 0.74618572061E+02 0.57037966094E+02 0.40998870812E+02
 0.28832973434E+02 0.20411265177E+02 0.14705980370E+02 0.10888726201E+02 0.84854536652E+01
 0.71457702905E+01 0.65684656489E+01 0.65313126379E+01 0.68420627850E+01 0.72346608825E+01
 0.11924503217E+02 0.11604095817E+02 0.10780449531E+02 0.97797844920E+01 0.89340929885E+01
 0.84854536652E+01 0.86473459969E+01 0.96816720556E+01 0.11854206893E+02 0.15370112497E+02
 0.20411265177E+02 0.27129166971E+02 0.35311043500E+02 0.43825339054E+02 0.50511826561E+02
 0.53074256156E+02 0.50511826561E+02 0.43825339054E+02 0.35311043500E+02 0.27129166971E+02
 0.20411265177E+02 0.15370112497E+02 0.11854206893E+02 0.96816720556E+01 0.86473459969E+01
 0.84854536652E+01 0.89340929885E+01 0.97797844920E+01 0.10780449531E+02 0.11604095817E+02
 0.19230768125E+02 0.18638892877E+02 0.17047663597E+02 0.14910109420E+02 0.12726777233E+02
 0.10888726201E+02 0.96816720556E+01 0.93418147620E+01 0.10045205028E+02 0.11854206893E+02
 0.14705980370E+02 0.18434437124E+02 0.22710937847E+02 0.26897025225E+02 0.30042061883E+02
 0.31220781580E+02 0.30042061883E+02 0.26897025225E+02 0.22710937847E+02 0.18434437124E+02
 0.14705980370E+02 0.11854206893E+02 0.10045205028E+02 0.93418147620E+01 0.96816720556E+01
 0.10888726201E+02 0.12726777233E+02 0.14910109420E+02 0.17047663597E+02 0.18638892877E+02
 0.31220781580E+02 0.30042061883E+02 0.26897025225E+02 0.22710937847E+02 0.18434437124E+02
 0.14705980370E+02 0.11854206893E+02 0.10045205028E+02 0.93418147620E+01 0.96816720556E+01
 0.10888726201E+02 0.12726777233E+02 0.14910109420E+02 0.17047663597E+02 0.18638892877E+02
 0.19230768125E+02 0.18638892877E+02 0.17047663597E+02 0.14910109420E+02 0.12726777233E+02
 0.10888726201E+02 0.96816720556E+01 0.93418147620E+01 0.10045205028E+02 0.11854206893E+02
 0.14705980370E+02 0.18434437124E+02 0.22710937847E+02 0.26897025225E+02 0.30042061883E+02
 0.53074256156E+02 0.50511826561E+02 0.43825339054E+02 0.35311043500E+02 0.27129166971E+02
 0.20411265177E+02 0.15370112497E+02 0.11854206893E+02 0.96816720556E+01 0.86473459969E+01
 0.84854536652E+01 0.89340929885E+01 0.97797844920E+01 0.10780449531E+02 0.11604095817E+02
 0.11924503217E+02 0.11604095817E+02 0.10780449531E+02 0.97797844920E+01 0.89340929885E+01
 0.84854536652E+01 0.86473459969E+01 0.96816720556E+01 0.11854206893E+02 0.15370112497E+02
 0.20411265177E+02 0.27129166971E+02 0.35311043500E+02 0.43825339054E+02 0.50511826561E+02
 0.94356859828E+02 0.88804300845E+02 0.74618572061E+02 0.57037966094E+02 0.40998870812E+02
 0.28832973434E+02 0.20411265177E+02 0.14705980370E+02 0.10888726201E+02 0.84854536652E+01
 0.71457702905E+01 0.65684656489E+01 0.65313126379E+01 0.68420627850E+01 0.72346608825E+01
 0.74109420650E+01 0.72346608825E+01 0.68420627850E+01 0.65313126379E+01 0.65684656489E+01
 0.71457702905E+01 0.84854536652E+01 0.10888726201E+02 0.14705980370E+02 0.20411265177E+02
 0.28832973434E+02 0.40998870812E+02 0.57037966094E+02 0.74618572061E+02 0.88804300845E+02
 0.17190917073E+03 0.15941482960E+03 0.12837082630E+03 0.92820874746E+02 0.62728220239E+02
 0.40998870812E+02 0.27129166971E+02 0.18434437124E+02 0.12726777233E+02 0.89340929885E+01
 0.65684656489E+01 0.52514435235E+01 0.46648885902E+01 0.45732161406E+01 0.47225589981E+01
 0.48200440001E+01 0.47225589981E+01 0.45732161406E+01 0.46648885902E+01 0.52514435235E+01
 0.65684656489E+01 0.89340929885E+01 0.12726777233E+02 0.18434437124E+02 0.27129166971E+02
 0.40998870812E+02 0.62728220239E+02 0.92820874746E+02 0.12837082630E+03 0.15941482960E+03
 0.29504949443E+03 0.27270120002E+03 0.21516158937E+03 0.14723479457E+03 0.92820874746E+02
 0.57037966094E+02 0.35311043500E+02 0.22710937847E+02 0.14910109420E+02 0.97797844920E+01
 0.65313126379E+01 0.46648885902E+01 0.37219098735E+01 0.33754829043E+01 0.33646885914E+01
 0.34089718132E+01 0.33646885914E+01 0.33754829043E+01 0.37219098735E+01 0.46648885902E+01
 0.65313126379E+01 0.97797844920E+01 0.14910109420E+02 0.22710937847E+02 0.35311043500E+02
 0.57037966094E+02 0.92820874746E+02 0.14723479457E+03 0.21516158937E+03 0.27270120002E+03
 0.42714336564E+03 0.39813613480E+03 0.31817739942E+03 0.21516158937E+03 0.12837082630E+03
 0.74618572061E+02 0.43825339054E+02 0.26897025225E+02 0.17047663597E+02 0.10780449531E+02
 0.68420627850E+01 0.45732161406E+01 0.33754829043E+01 0.28284683348E+01 0.26706838451E+01
 0.26604125981E+01 0.26706838451E+01 0.28284683348E+01 0.33754829043E+01 0.45732161406E+01
 0.68420627850E+01 0.10780449531E+02 0.17047663597E+02 0.26897025225E+02 0.43825339054E+02
 0.74618572061E+02 0.12837082630E+03 0.21516158937E+03 0.31817739942E+03 0.39813613480E+03
 0.51562096165E+03 0.48630044951E+03 0.39813613480E+03 0.27270120002E+03 0.15941482960E+03
 0.88804300845E+02 0.50511826561E+02 0.30042061883E+02 0.18638892877E+02 0.11604095817E+02
 0.72346608825E+01 0.47225589981E+01 0.33646885914E+01 0.26706838451E+01 0.23866208071E+01
 0.23248074172E+01 0.23866208071E+01 0.26706838451E+01 0.33646885914E+01 0.47225589981E+01
 0.72346608825E+01 0.11604095817E+02 0.18638892877E+02 0.30042061883E+02 0.50511826561E+02
 0.88804300845E+02 0.15941482960E+03 0.27270120002E+03 0.39813613480E+03 0.48630044951E+03
 0.54366237902E+03 0.51562096165E+03 0.42714336564E+03 0.29504949443E+03 0.17190917073E+03
 0.94356859828E+02 0.53074256156E+02 0.31220781580E+02 0.19230768125E+02 0.11924503217E+02
 0.74109420650E+01 0.48200440001E+01 0.34089718132E+01 0.26604125981E+01 0.23248074172E+01
 0.22409202581E+01 0.23248074172E+01 0.26604125981E+01 0.34089718132E+01 0.48200440001E+01
 0.74109420650E+01 0.11924503217E+02 0.19230768125E+02 0.31220781580E+02 0.53074256156E+02
 0.94356859828E+02 0.17190917073E+03 0.29504949443E+03 0.42714336564E+03 0.51562096165E+03
 0.51562096165E+03 0.48630044951E+03 0.39813613480E+03 0.27270120002E+03 0.15941482960E+03
 0.88804300845E+02 0.50511826561E+02 0.30042061883E+02 0.18638892877E+02 0.11604095817E+02
 0.72346608825E+01 0.47225589981E+01 0.33646885914E+01 0.26706838451E+01 0.23866208071E+01
 0.23248074172E+01 0.23866208071E+01 0.26706838451E+01 0.33646885914E+01 0.47225589981E+01
 0.72346608825E+01 0.11604095817E+02 0.18638892877E+02 0.30042061883E+02 0.50511826561E+02
 0.88804300845E+02 0.15941482960E+03 0.27270120002E+03 0.39813613480E+03 0.48630044951E+03
 0.42714336564E+03 0.39813613480E+03 0.31817739942E+03 0.21516158937E+03 0.12837082630E+03
 0.74618572061E+02 0.43825339054E+02 0.26897025225E+02 0.17047663597E+02 0.10780449531E+02
 0.68420627850E+01 0.45732161406E+01 0.33754829043E+01 0.28284683348E+01 0.26706838451E+01
 0.26604125981E+01 0.26706838451E+01 0.28284683348E+01 0.33754829043E+01 0.45732161406E+01
 0.68420627850E+01 0.10780449531E+02 0.17047663597E+02 0.26897025225E+02 0.43825339054E+02
 0.74618572061E+02 0.12837082630E+03 0.21516158937E+03 0.31817739942E+03 0.39813613480E+03
 0.29504949443E+03 0.27270120002E+03 0.21516158937E+03 0.14723479457E+03 0.92820874746E+02
 0.57037966094E+02 0.35311043500E+02 0.22710937847E+02 0.14910109420E+02 0.97797844920E+01
 0.65313126379E+01 0.46648885902E+01 0.37219098735E+01 0.33754829043E+01 0.33646885914E+01
 0.34089718132E+01 0.33646885914E+01 0.33754829043E+01 0.37219098735E+01 0.46648885902E+01
 0.65313126379E+01 0.97797844920E+01 0.14910109420E+02 0.22710937847E+02 0.35311043500E+02
 0.57037966094E+02 0.92820874746E+02 0.14723479457E+03 0.21516158937E+03 0.27270120002E+03
 0.17190917073E+03 0.15941482960E+03 0.12837082630E+03 0.92820874746E+02 0.62728220239E+02
 0.40998870812E+02 0.27129166971E+02 0.18434437124E+02 0.12726777233E+02 0.89340929885E+01
 0.65684656489E+01 0.52514435235E+01 0.46648885902E+01 0.45732161406E+01 0.47225589981E+01
 0.48200440001E+01 0.47225589981E+01 0.45732161406E+01 0.46648885902E+01 0.52514435235E+01
 0.65684656489E+01 0.89340929885E+01 0.12726777233E+02 0.18434437124E+02 0.27129166971E+02
 0.40998870812E+02 0.62728220239E+02 0.92820874746E+02 0.12837082630E+03 0.15941482960E+03
 0.94356859828E+02 0.88804300845E+02 0.74618572061E+02 0.57037966094E+02 0.40998870812E+02
 0.28832973434E+02 0.20411265177E+02 0.14705980370E+02 0.10888726201E+02 0.84854536652E+01
 0.71457702905E+01 0.65684656489E+01 0.65313126379E+01 0.68420627850E+01 0.72346608825E+01
 0.74109420650E+01 0.72346608825E+01 0.68420627850E+01 0.65313126379E+01 0.65684656489E+01
 0.71457702905E+01 0.84854536652E+01 0.10888726201E+02 0.14705980370E+02 0.20411265177E+02
 0.28832973434E+02 0.40998870812E+02 0.57037966094E+02 0.74618572061E+02 0.88804300845E+02
 0.53074256156E+02 0.50511826561E+02 0.43825339054E+02 0.35311043500E+02 0.27129166971E+02
 0.20411265177E+02 0.15370112497E+02 0.11854206893E+02 0.96816720556E+01 0.86473459969E+01
 0.84854536652E+01 0.89340929885E+01 0.97797844920E+01 0.10780449531E+02 0.11604095817E+02
 0.11924503217E+02 0.11604095817E+02 0.10780449531E+02 0.97797844920E+01 0.89340929885E+01
 0.84854536652E+01 0.86473459969E+01 0.96816720556E+01 0.11854206893E+02 0.15370112497E+02
 0.20411265177E+02 0.27129166971E+02 0.35311043500E+02 0.43825339054E+02 0.50511826561E+02
 0.31220781580E+02 0.30042061883E+02 0.26897025225E+02 0.22710937847E+02 0.18434437124E+02
 0.14705980370E+02 0.11854206893E+02 0.10045205028E+02 0.93418147620E+01 0.96816720556E+01
 0.10888726201E+02 0.12726777233E+02 0.14910109420E+02 0.17047663597E+02 0.18638892877E+02
 0.19230768125E+02 0.18638892877E+02 0.17047663597E+02 0.14910109420E+02 0.12726777233E+02
 0.10888726201E+02 0.96816720556E+01 0.93418147620E+01 0.10045205028E+02 0.11854206893E+02
 0.14705980370E+02 0.18434437124E+02 0.22710937847E+02 0.26897025225E+02 0.30042061883E+02
 0.19230768125E+02 0.18638892877E+02 0.17047663597E+02 0.14910109420E+02 0.12726777233E+02
 0.10888726201E+02 0.96816720556E+01 0.93418147620E+01 0.10045205028E+02 0.11854206893E+02
 0.14705980370E+02 0.18434437124E+02 0.22710937847E+02 0.26897025225E+02 0.30042061883E+02
 0.31220781580E+02 0.30042061883E+02 0.26897025225E+02 0.22710937847E+02 0.18434437124E+02
 0.14705980370E+02 0.11854206893E+02 0.10045205028E+02 0.93418147620E+01 0.96816720556E+01
 0.10888726201E+02 0.12726777233E+02 0.14910109420E+02 0.17047663597E+02 0.18638892877E+02
 0.11924503217E+02 0.11604095817E+02 0.10780449531E+02 0.97797844920E+01 0.89340929885E+01
 0.84854536652E+01 0.86473459969E+01 0.96816720556E+01 0.11854206893E+02 0.15370112497E+02
 0.20411265177E+02 0.27129166971E+02 0.35311043500E+02 0.43825339054E+02 0.50511826561E+02
 0.53074256156E+02 0.50511826561E+02 0.43825339054E+02 0.35311043500E+02 0.27129166971E+02
 0.20411265177E+02 0.15370112497E+02 0.11854206893E+02 0.96816720556E+01 0.86473459969E+01
 0.84854536652E+01 0.89340929885E+01 0.97797844920E+01 0.10780449531E+02 0.11604095817E+02
 0.74109420650E+01 0.72346608825E+01 0.68420627850E+01 0.65313126379E+01 0.65684656489E+01
 0.71457702905E+01 0.84854536652E+01 0.10888726201E+02 0.14705980370E+02 0.20411265177E+02
 0.28832973434E+02 0.40998870812E+02 0.57037966094E+02 0.74618572061E+02 0.88804300845E+02
 0.94356859828E+02 0.88804300845E+02 0.74618572061E+02 0.57037966094E+02 0.40998870812E+02
 0.28832973434E+02 0.20411265177E+02 0.14705980370E+02 0.10888726201E+02 0.84854536652E+01
 0.71457702905E+01 0.65684656489E+01 0.65313126379E+01 0.68420627850E+01 0.72346608825E+01
 0.48200440001E+01 0.47225589981E+01 0.45732161406E+01 0.46648885902E+01 0.52514435235E+01
 0.65684656489E+01 0.89340929885E+01 0.12726777233E+02 0.18434437124E+02 0.27129166971E+02
 0.40998870812E+02 0.62728220239E+02 0.92820874746E+02 0.12837082630E+03 0.15941482960E+03
 0.17190917073E+03 0.15941482960E+03 0.12837082630E+03 0.92820874746E+02 0.62728220239E+02
 0.40998870812E+02 0.27129166971E+02 0.18434437124E+02 0.12726777233E+02 0.89340929885E+01
 0.65684656489E+01 0.52514435235E+01 0.46648885902E+01 0.45732161406E+01 0.47225589981E+01
 0.34089718132E+01 0.33646885914E+01 0.33754829043E+01 0.37219098735E+01 0.46648885902E+01
 0.65313126379E+01 0.97797844920E+01 0.14910109420E+02 0.22710937847E+02 0.35311043500E+02
 0.57037966094E+02 0.92820874746E+02 0.14723479457E+03 0.21516158937E+03 0.27270120002E+03
 0.29504949443E+03 0.27270120002E+03 0.21516158937E+03 0.14723479457E+03 0.92820874746E+02
 0.57037966094E+02 0.35311043500E+02 0.22710937847E+02 0.14910109420E+02 0.97797844920E+01
 0.65313126379E+01 0.46648885902E+01 0.37219098735E+01 0.33754829043E+01 0.33646885914E+01
 0.26604125981E+01 0.26706838451E+01 0.28284683348E+01 0.33754829043E+01 0.45732161406E+01
 0.68420627850E+01 0.10780449531E+02 0.17047663597E+02 0.26897025225E+02 0.43825339054E+02
 0.74618572061E+02 0.12837082630E+03 0.21516158937E+03 0.31817739942E+03 0.39813613480E+03
 0.42714336564E+03 0.39813613480E+03 0.31817739942E+03 0.21516158937E+03 0.12837082630E+03
 0.74618572061E+02 0.43825339054E+02 0.26897025225E+02 0.17047663597E+02 0.10780449531E+02
 0.68420627850E+01 0.45732161406E+01 0.33754829043E+01 0.28284683348E+01 0.26706838451E+01
 0.23248074172E+01 0.23866208071E+01 0.26706838451E+01 0.33646885914E+01 0.47225589981E+01
 0.72346608825E+01 0.11604095817E+02 0.18638892877E+02 0.30042061883E+02 0.50511826561E+02
 0.88804300845E+02 0.15941482960E+03 0.27270120002E+03 0.39813613480E+03 0.48630044951E+03
 0.51562096165E+03 0.48630044951E+03 0.39813613480E+03 0.27270120002E+03 0.15941482960E+03
 0.88804300845E+02 0.50511826561E+02 0.30042061883E+02 0.18638892877E+02 0.11604095817E+02
 0.72346608825E+01 0.47225589981E+01 0.33646885914E+01 0.26706838451E+01 0.23866208071E+01
 0.23248074172E+01 0.23866208071E+01 0.26706838451E+01 0.33646885914E+01 0.47225589981E+01
 0.72346608825E+01 0.11604095817E+02 0.18638892877E+02 0.30042061883E+02 0.50511826561E+02
 0.88804300845E+02 0.15941482960E+03 0.27270120002E+03 0.39813613480E+03 0.48630044951E+03
 0.51562096165E+03 0.48630044951E+03 0.39813613480E+03 0.27270120002E+03 0.15941482960E+03
 0.88804300845E+02 0.50511826561E+02 0.30042061883E+02 0.18638892877E+02 0.11604095817E+02
 0.72346608825E+01 0.47225589981E+01 0.33646885914E+01 0.26706838451E+01 0.23866208071E+01
 0.23866208071E+01 0.24313698607E+01 0.26750094522E+01 0.33247247654E+01 0.46357333568E+01
 0.70725797900E+01 0.11301424578E+02 0.18075239878E+02 0.28928982115E+02 0.48121199484E+02
 0.83690488072E+02 0.14803938933E+03 0.25193229087E+03 0.37012001017E+03 0.45651273109E+03
 0.48630044951E+03 0.45651273109E+03 0.37012001017E+03 0.25193229087E+03 0.14803938933E+03
 0.83690488072E+02 0.48121199484E+02 0.28928982115E+02 0.18075239878E+02 0.11301424578E+02
 0.70725797900E+01 0.46357333568E+01 0.33247247654E+01 0.26750094522E+01 0.24313698607E+01
 0.26706838451E+01 0.26750094522E+01 0.28173039927E+01 0.33436085260E+01 0.45098709664E+01
 0.67132570454E+01 0.10521840436E+02 0.16556435600E+02 0.25951762991E+02 0.41872007441E+02
 0.70534371188E+02 0.11980846590E+03 0.19890055869E+03 0.29431432354E+03 0.37012001017E+03
 0.39813613480E+03 0.37012001017E+03 0.29431432354E+03 0.19890055869E+03 0.11980846590E+03
 0.70534371188E+02 0.41872007441E+02 0.25951762991E+02 0.16556435600E+02 0.10521840436E+02
 0.67132570454E+01 0.45098709664E+01 0.33436085260E+01 0.28173039927E+01 0.26750094522E+01
 0.33646885914E+01 0.33247247654E+01 0.33436085260E+01 0.36927144235E+01 0.46210484035E+01
 0.64354291830E+01 0.95717083850E+01 0.14508569462E+02 0.21971231839E+02 0.33883384921E+02
 0.54179374723E+02 0.87359405776E+02 0.13693886842E+03 0.19890055869E+03 0.25193229087E+03
 0.27270120002E+03 0.25193229087E+03 0.19890055869E+03 0.13693886842E+03 0.87359405776E+02
 0.54179374723E+02 0.33883384921E+02 0.21971231839E+02 0.14508569462E+02 0.95717083850E+01
 0.64354291830E+01 0.46210484035E+01 0.36927144235E+01 0.33436085260E+01 0.33247247654E+01
 0.47225589981E+01 0.46357333568E+01 0.45098709664E+01 0.46210484035E+01 0.52074221204E+01
 0.64882154592E+01 0.87659706093E+01 0.12409403418E+02 0.17882934173E+02 0.26158355761E+02
 0.39206622725E+02 0.59465741987E+02 0.87359405776E+02 0.11980846590E+03 0.14803938933E+03
 0.15941482960E+03 0.14803938933E+03 0.11980846590E+03 0.87359405776E+02 0.59465741987E+02
 0.39206622725E+02 0.26158355761E+02 0.17882934173E+02 0.12409403418E+02 0.87659706093E+01
 0.64882154592E+01 0.52074221204E+01 0.46210484035E+01 0.45098709664E+01 0.46357333568E+01
 0.72346608825E+01 0.70725797900E+01 0.67132570454E+01 0.64354291830E+01 0.64882154592E+01
 0.70512607169E+01 0.83364115439E+01 0.10639277741E+02 0.14303184282E+02 0.19766243558E+02
 0.27765400665E+02 0.39206622725E+02 0.54179374723E+02 0.70534371188E+02 0.83690488072E+02
 0.88804300845E+02 0.83690488072E+02 0.70534371188E+02 0.54179374723E+02 0.39206622725E+02
 0.27765400665E+02 0.19766243558E+02 0.14303184282E+02 0.10639277741E+02 0.83364115439E+01
 0.70512607169E+01 0.64882154592E+01 0.64354291830E+01 0.67132570454E+01 0.70725797900E+01
 0.11604095817E+02 0.11301424578E+02 0.10521840436E+02 0.95717083850E+01 0.87659706093E+01
 0.83364115439E+01 0.84886267032E+01 0.94767486632E+01 0.11560589061E+02 0.14937621294E+02
 0.19766243558E+02 0.26158355761E+02 0.33883384921E+02 0.41872007441E+02 0.48121199484E+02
 0.50511826561E+02 0.48121199484E+02 0.41872007441E+02 0.33883384921E+02 0.26158355761E+02
 0.19766243558E+02 0.14937621294E+02 0.11560589061E+02 0.94767486632E+01 0.84886267032E+01
 0.83364115439E+01 0.87659706093E+01 0.95717083850E+01 0.10521840436E+02 0.11301424578E+02
 0.18638892877E+02 0.18075239878E+02 0.16556435600E+02 0.14508569462E+02 0.12409403418E+02
 0.10639277741E+02 0.94767486632E+01 0.91483756995E+01 0.98223847235E+01 0.11560589061E+02
 0.14303184282E+02 0.17882934173E+02 0.21971231839E+02 0.25951762991E+02 0.28928982115E+02
 0.30042061883E+02 0.28928982115E+02 0.25951762991E+02 0.21971231839E+02 0.17882934173E+02
 0.14303184282E+02 0.11560589061E+02 0.98223847235E+01 0.91483756995E+01 0.94767486632E+01
 0.10639277741E+02 0.12409403418E+02 0.14508569462E+02 0.16556435600E+02 0.18075239878E+02
 0.30042061883E+02 0.28928982115E+02 0.25951762991E+02 0.21971231839E+02 0.17882934173E+02
 0.14303184282E+02 0.11560589061E+02 0.98223847235E+01 0.91483756995E+01 0.94767486632E+01
 0.10639277741E+02 0.12409403418E+02 0.14508569462E+02 0.16556435600E+02 0.18075239878E+02
 0.18638892877E+02 0.18075239878E+02 0.16556435600E+02 0.14508569462E+02 0.12409403418E+02
 0.10639277741E+02 0.94767486632E+01 0.91483756995E+01 0.98223847235E+01 0.11560589061E+02
 0.14303184282E+02 0.17882934173E+02 0.21971231839E+02 0.25951762991E+02 0.28928982115E+02
 0.50511826561E+02 0.48121199484E+02 0.41872007441E+02 0.33883384921E+02 0.26158355761E+02
 0.19766243558E+02 0.14937621294E+02 0.11560589061E+02 0.94767486632E+01 0.84886267032E+01
 0.83364115439E+01 0.87659706093E+01 0.95717083850E+01 0.10521840436E+02 0.11301424578E+02
 0.11604095817E+02 0.11301424578E+02 0.10521840436E+02 0.95717083850E+01 0.87659706093E+01
 0.83364115439E+01 0.84886267032E+01 0.94767486632E+01 0.11560589061E+02 0.14937621294E+02
 0.19766243558E+02 0.26158355761E+02 0.33883384921E+02 0.41872007441E+02 0.48121199484E+02
 0.88804300845E+02 0.83690488072E+02 0.70534371188E+02 0.54179374723E+02 0.39206622725E+02
 0.27765400665E+02 0.19766243558E+02 0.14303184282E+02 0.10639277741E+02 0.83364115439E+01
 0.70512607169E+01 0.64882154592E+01 0.64354291830E+01 0.67132570454E+01 0.70725797900E+01
 0.72346608825E+01 0.70725797900E+01 0.67132570454E+01 0.64354291830E+01 0.64882154592E+01
 0.70512607169E+01 0.83364115439E+01 0.10639277741E+02 0.14303184282E+02 0.19766243558E+02
 0.27765400665E+02 0.39206622725E+02 0.54179374723E+02 0.70534371188E+02 0.83690488072E+02
 0.15941482960E+03 0.14803938933E+03 0.11980846590E+03 0.87359405776E+02 0.59465741987E+02
 0.39206622725E+02 0.26158355761E+02 0.17882934173E+02 0.12409403418E+02 0.87659706093E+01
 0.64882154592E+01 0.52074221204E+01 0.46210484035E+01 0.45098709664E+01 0.46357333568E+01
 0.47225589981E+01 0.46357333568E+01 0.45098709664E+01 0.46210484035E+01 0.52074221204E+01
 0.64882154592E+01 0.87659706093E+01 0.12409403418E+02 0.17882934173E+02 0.26158355761E+02
 0.39206622725E+02 0.59465741987E+02 0.87359405776E+02 0.11980846590E+03 0.14803938933E+03
 0.27270120002E+03 0.25193229087E+03 0.19890055869E+03 0.13693886842E+03 0.87359405776E+02
 0.54179374723E+02 0.33883384921E+02 0.21971231839E+02 0.14508569462E+02 0.95717083850E+01
 0.64354291830E+01 0.46210484035E+01 0.36927144235E+01 0.33436085260E+01 0.33247247654E+01
 0.33646885914E+01 0.33247247654E+01 0.33436085260E+01 0.36927144235E+01 0.46210484035E+01
 0.64354291830E+01 0.95717083850E+01 0.14508569462E+02 0.21971231839E+02 0.33883384921E+02
 0.54179374723E+02 0.87359405776E+02 0.13693886842E+03 0.19890055869E+03 0.25193229087E+03
 0.39813613480E+03 0.37012001017E+03 0.29431432354E+03 0.19890055869E+03 0.11980846590E+03
 0.70534371188E+02 0.41872007441E+02 0.25951762991E+02 0.16556435600E+02 0.10521840436E+02
 0.67132570454E+01 0.45098709664E+01 0.33436085260E+01 0.28173039927E+01 0.26750094522E+01
 0.26706838451E+01 0.26750094522E+01 0.28173039927E+01 0.33436085260E+01 0.45098709664E+01
 0.67132570454E+01 0.10521840436E+02 0.16556435600E+02 0.25951762991E+02 0.41872007441E+02
 0.70534371188E+02 0.11980846590E+03 0.19890055869E+03 0.29431432354E+03 0.37012001017E+03
 0.48630044951E+03 0.45651273109E+03 0.37012001017E+03 0.25193229087E+03 0.14803938933E+03
 0.83690488072E+02 0.48121199484E+02 0.28928982115E+02 0.18075239878E+02 0.11301424578E+02
 0.70725797900E+01 0.46357333568E+01 0.33247247654E+01 0.26750094522E+01 0.24313698607E+01
 0.23866208071E+01 0.24313698607E+01 0.26750094522E+01 0.33247247654E+01 0.46357333568E+01
 0.70725797900E+01 0.11301424578E+02 0.18075239878E+02 0.28928982115E+02 0.48121199484E+02
 0.83690488072E+02 0.14803938933E+03 0.25193229087E+03 0.37012001017E+03 0.45651273109E+03
 0.51562096165E+03 0.48630044951E+03 0.39813613480E+03 0.27270120002E+03 0.15941482960E+03
 0.88804300845E+02 0.50511826561E+02 0.30042061883E+02 0.18638892877E+02 0.11604095817E+02
 0.72346608825E+01 0.47225589981E+01 0.33646885914E+01 0.26706838451E+01 0.23866208071E+01
 0.23248074172E+01 0.23866208071E+01 0.26706838451E+01 0.33646885914E+01 0.47225589981E+01
 0.72346608825E+01 0.11604095817E+02 0.18638892877E+02 0.30042061883E+02 0.50511826561E+02
 0.88804300845E+02 0.15941482960E+03 0.27270120002E+03 0.39813613480E+03 0.48630044951E+03
 0.48630044951E+03 0.45651273109E+03 0.37012001017E+03 0.25193229087E+03 0.14803938933E+03
 0.83690488072E+02 0.48121199484E+02 0.28928982115E+02 0.18075239878E+02 0.11301424578E+02
 0.70725797900E+01 0.46357333568E+01 0.33247247654E+01 0.26750094522E+01 0.24313698607E+01
 0.23866208071E+01 0.24313698607E+01 0.26750094522E+01 0.33247247654E+01 0.46357333568E+01
 0.70725797900E+01 0.11301424578E+02 0.18075239878E+02 0.28928982115E+02 0.48121199484E+02
 0.83690488072E+02 0.14803938933E+03 0.25193229087E+03 0.37012001017E+03 0.45651273109E+03
 0.39813613480E+03 0.37012001017E+03 0.29431432354E+03 0.19890055869E+03 0.11980846590E+03
 0.70534371188E+02 0.41872007441E+02 0.25951762991E+02 0.16556435600E+02 0.10521840436E+02
 0.67132570454E+01 0.45098709664E+01 0.33436085260E+01 0.28173039927E+01 0.26750094522E+01
 0.26706838451E+01 0.26750094522E+01 0.28173039927E+01 0.33436085260E+01 0.45098709664E+01
 0.67132570454E+01 0.10521840436E+02 0.16556435600E+02 0.25951762991E+02 0.41872007441E+02
 0.70534371188E+02 0.11980846590E+03 0.19890055869E+03 0.29431432354E+03 0.37012001017E+03
 0.27270120002E+03 0.25193229087E+03 0.19890055869E+03 0.13693886842E+03 0.87359405776E+02
 0.54179374723E+02 0.33883384921E+02 0.21971231839E+02 0.14508569462E+02 0.95717083850E+01
 0.64354291830E+01 0.46210484035E+01 0.36927144235E+01 0.33436085260E+01 0.33247247654E+01
 0.33646885914E+01 0.33247247654E+01 0.33436085260E+01 0.36927144235E+01 0.46210484035E+01
 0.64354291830E+01 0.95717083850E+01 0.14508569462E+02 0.21971231839E+02 0.33883384921E+02
 0.54179374723E+02 0.87359405776E+02 0.13693886842E+03 0.19890055869E+03 0.25193229087E+03
 0.15941482960E+03 0.14803938933E+03 0.11980846590E+03 0.87359405776E+02 0.59465741987E+02
 0.39206622725E+02 0.26158355761E+02 0.17882934173E+02 0.12409403418E+02 0.87659706093E+01
 0.64882154592E+01 0.52074221204E+01 0.46210484035E+01 0.45098709664E+01 0.46357333568E+01
 0.47225589981E+01 0.46357333568E+01 0.45098709664E+01 0.46210484035E+01 0.52074221204E+01
 0.64882154592E+01 0.87659706093E+01 0.12409403418E+02 0.17882934173E+02 0.26158355761E+02
 0.39206622725E+02 0.59465741987E+02 0.87359405776E+02 0.11980846590E+03 0.14803938933E+03
 0.88804300845E+02 0.83690488072E+02 0.70534371188E+02 0.54179374723E+02 0.39206622725E+02
 0.27765400665E+02 0.19766243558E+02 0.14303184282E+02 0.10639277741E+02 0.83364115439E+01
 0.70512607169E+01 0.64882154592E+01 0.64354291830E+01 0.67132570454E+01 0.70725797900E+01
 0.72346608825E+01 0.70725797900E+01 0.67132570454E+01 0.64354291830E+01 0.64882154592E+01
 0.70512607169E+01 0.83364115439E+01 0.10639277741E+02 0.14303184282E+02 0.19766243558E+02
 0.27765400665E+02 0.39206622725E+02 0.54179374723E+02 0.70534371188E+02 0.83690488072E+02
 0.50511826561E+02 0.48121199484E+02 0.41872007441E+02 0.33883384921E+02 0.26158355761E+02
 0.19766243558E+02 0.14937621294E+02 0.11560589061E+02 0.94767486632E+01 0.84886267032E+01
 0.83364115439E+01 0.87659706093E+01 0.95717083850E+01 0.10521840436E+02 0.11301424578E+02
 0.11604095817E+02 0.11301424578E+02 0.10521840436E+02 0.95717083850E+01 0.87659706093E+01
 0.83364115439E+01 0.84886267032E+01 0.94767486632E+01 0.11560589061E+02 0.14937621294E+02
 0.19766243558E+02 0.26158355761E+02 0.33883384921E+02 0.41872007441E+02 0.48121199484E+02
 0.30042061883E+02 0.28928982115E+02 0.25951762991E+02 0.21971231839E+02 0.17882934173E+02
 0.14303184282E+02 0.11560589061E+02 0.98223847235E+01 0.91483756995E+01 0.94767486632E+01
 0.10639277741E+02 0.12409403418E+02 0.14508569462E+02 0.16556435600E+02 0.18075239878E+02
 0.18638892877E+02 0.18075239878E+02 0.16556435600E+02 0.14508569462E+02 0.12409403418E+02
 0.10639277741E+02 0.94767486632E+01 0.91483756995E+01 0.98223847235E+01 0.11560589061E+02
 0.14303184282E+02 0.17882934173E+02 0.21971231839E+02 0.25951762991E+02 0.28928982115E+02
 0.18638892877E+02 0.18075239878E+02 0.16556435600E+02 0.14508569462E+02 0.12409403418E+02
 0.10639277741E+02 0.94767486632E+01 0.91483756995E+01 0.98223847235E+01 0.11560589061E+02
 0.14303184282E+02 0.17882934173E+02 0.21971231839E+02 0.25951762991E+02 0.28928982115E+02
 0.30042061883E+02 0.28928982115E+02 0.25951762991E+02 0.21971231839E+02 0.17882934173E+02
 0.14303184282E+02 0.11560589061E+02 0.98223847235E+01 0.91483756995E+01 0.94767486632E+01
 0.10639277741E+02 0.12409403418E+02 0.14508569462E+02 0.16556435600E+02 0.18075239878E+02